<?xml version="1.0" encoding="iso-8859-1"?>

<configuration xmlns:xsi="http://www.w3.org/2001/XMLSchema-instance" xsi:noNamespaceSchemaLocation="http://sumo.sf.net/xsd/sumoConfiguration.xsd">

    <input>
        <net-file value="newark.net.xml"/>
        <additional-files value="vehicles.xml"/>
        <!-- <route-files value="routes.xml"/> -->
        <route-files value="routes_newark.xml"/>
        <gui-settings-file value="gui.settings.xml"/>
    </input>

    <output>
    	<!-- <netstate-dump value="D:\Nina\Documents\google_drive\sumo_output\netstate_dump.xml" /> -->
    	<!-- <full-output value="D:\Nina\Documents\google_drive\sumo_output\full_output.xml" /> -->
    	<!-- <tripinfo-output value="trip_output.xml"/> -->
    	<vehroute-output value="D:\Nina\Documents\google_drive\sumo_output\vehicle_route_output.xml" />
    	<summary value="D:\Nina\Documents\google_drive\sumo_output\summary_output.xml" />
    </output>

    <routing>
    	<device.rerouting.probability value="1.0" />
    </routing>

<!--
    <report>
        <no-duration-log value="true"/>
        <no-step-log value="true"/>
    </report>
-->
</configuration>
